10000
 step = 100
Ne     30.83755     17.39974     11.41415
Ne     31.56140     30.33737     22.65472
Ne     16.07417      4.82561     42.96931
Ne      9.22984     37.74461      6.90536
Ne      9.70418     34.05726     19.86685
Ne     28.98189      2.87000     31.56798
Ne      9.63384      1.23616     11.59434
Ne     37.53142     32.87203     38.10301
Ne     38.27454     17.61628      3.26721
Ne     24.94389     -0.31995      9.89201
Ne     39.97712      3.36779     25.42179
Ne     39.27819      9.07924     13.74124
Ne     20.25949     37.93947      4.33013
Ne     29.44049     17.88724      0.21532
Ne     30.78743      6.95383     10.31062
Ne     19.34594     35.81743     33.77521
Ne     15.73898     11.89416     22.05702
Ne     11.77309      2.80793     11.80757
Ne     23.13014      4.02355     31.21815
Ne     38.02588     20.48984     30.91562
Ne     33.98676     34.57639     -1.60863
Ne     23.18742     33.56475      7.57455
Ne     17.10775     21.86572     12.80643
Ne     33.48728      5.57124      6.42463
Ne     42.01297     16.98874     42.93669
Ne      7.30475     10.15182     36.49858
Ne     42.40486     22.58783     14.45333
Ne     29.21036     12.19881     44.39484
Ne     12.66952     17.36406     35.75832
Ne     26.32861     25.92356     41.58096
Ne     21.20760     26.40884      0.27025
Ne      7.08020     35.12734     21.65535
Ne     23.87239     14.54688     -0.64239
Ne      4.93865     10.30509      3.41151
Ne     41.50836     34.65111     -0.00766
Ne     12.04492      6.80355     43.68952
Ne     30.44867     23.60946     14.03970
Ne     32.25989     18.05110      9.74788
Ne     27.16608     39.93242     18.16505
Ne     41.78809     36.81675     -0.76978
Ne      3.88155      7.71895     29.86039
Ne     34.43302      8.00660     11.76645
Ne     31.59087     21.91898     42.76829
Ne     43.04745     38.72181     22.28135
Ne     39.72502      4.17648     40.39915
Ne     26.62203     13.72971      1.91136
Ne     19.63522     31.80681     29.45933
Ne     39.17879      5.82001     42.22065
Ne     29.94066     29.79225     10.64723
Ne     -1.04146     26.49602     25.01973
Ne      1.06774     43.49526     15.64221
Ne     35.96421     34.85709     15.44690
Ne     19.18334     38.16543      7.92959
Ne     43.09760      2.24427     17.80442
Ne     18.34108      9.88634     18.41329
Ne     -0.33582     30.64863      5.65523
Ne     23.41635     27.11457     34.83032
Ne     13.08124      4.40750     26.95077
Ne      5.89517     43.72202     -0.31084
Ne     38.37318     42.65163     22.75684
Ne      9.46396      9.59987     33.05102
Ne     12.19135     20.36776     16.36922
Ne     27.30939     12.16111     19.06248
Ne     30.03772     13.16695     19.05048
Ne     23.85303     19.12942     14.83696
Ne      6.92805      2.15204      0.64200
Ne     35.29314     44.00811     28.88671
Ne      5.86146     25.51690     28.26301
Ne     29.56722      6.50556      8.59067
Ne     32.81524     19.83870     -0.00757
Ne     10.82126      3.67151     34.06646
Ne     43.48259     20.56022     43.45673
Ne      0.39020     20.04203     38.37494
Ne     17.87737     28.20728      9.87223
Ne     32.81581     32.72259     41.54502
Ne     42.75069     40.73596     44.05411
Ne     40.25338     27.55406     19.72908
Ne     15.79095     40.98568     -0.01785
Ne      0.23991     38.92062     17.18405
Ne     40.35260     12.02625     20.42496
Ne     17.70817     21.24706      3.26840
Ne     18.97347     29.43392     13.58732
Ne      7.55362     25.10861     15.28427
Ne      2.63816     30.27745      6.06177
Ne     31.85009      6.47884     25.37763
Ne     27.43334     39.31915     43.69397
Ne      3.74594     44.50753     42.91775
Ne     19.93566      5.66474     31.15211
Ne     43.07490     45.64502     37.53029
Ne      5.13610      7.01684      4.34587
Ne      4.86798      9.84889      0.89999
Ne     22.11374     42.53949     17.29612
Ne     26.84650      2.06391     14.56618
Ne     27.61399      3.99686     38.80236
Ne     39.09472      6.26500     19.69395
Ne     29.35828     12.65016      0.32438
Ne     22.40342     44.82282     32.38402
Ne     23.63313     18.42954      6.73074
Ne     42.69043     26.59821     41.94351
Ne     10.18730     40.36557     35.79221
Ne     34.94725     34.69517      7.65291
Ne     15.95661     34.53800     17.81939
Ne      2.39618     32.37977     42.42049
Ne     41.18613     26.88458     31.19809
Ne     19.60772     34.00580     38.28340
Ne     22.75581     26.72374     23.20473
Ne     21.35457     15.57429     35.76193
Ne      7.36590     19.31877     16.34028
Ne     17.03477     27.89045      5.02989
Ne     18.77779     25.84705     13.45975
Ne     17.87720     20.69842     10.13164
Ne     30.29397     17.90741     13.52699
Ne     -2.05961      9.55141     24.26808
Ne     27.97367     26.24028     -0.01609
Ne     27.82119      9.74833      0.92233
Ne      1.82928     19.35128      0.86383
Ne     -0.94782      2.16373     26.51797
Ne     22.57081      2.46022     16.72956
Ne     24.70592      8.27570     32.43716
Ne     29.18456     13.71859     25.37396
Ne     41.90457      3.30618     42.13574
Ne     35.30969      3.78533     28.50306
Ne     13.69225     21.07443      7.94021
Ne     19.61432      0.81924     41.97091
Ne     45.04383     16.65861     18.41306
Ne      9.54628     15.47461     33.25537
Ne      7.82119     28.94692     23.36166
Ne      6.47081     25.15651     26.17128
Ne     -1.22007     32.27225      1.08918
Ne      8.92202     35.02237      5.24461
Ne     35.64835      1.54906     21.53714
Ne     10.92308     23.53887     21.11260
Ne     24.34932     31.46952     41.02932
Ne     10.75100     10.77258     43.34558
Ne     17.72689     14.08135      8.85524
Ne     23.10129     25.78020     -1.03097
Ne     15.25596      4.43812     26.90151
Ne      3.08214     34.55593      2.86734
Ne     39.43343     28.35627      6.29521
Ne     42.57533     20.12297     37.43670
Ne     12.48667     25.25032     33.09706
Ne     22.04275     37.26880     20.32111
Ne     26.71143      6.83945     16.35969
Ne     36.86874     26.82891      3.63529
Ne     22.55127     30.36843     34.86208
Ne     19.67009     15.15740     -0.00789
Ne     23.29227     15.07343     28.91205
Ne      8.35411     25.91266     20.68785
Ne     43.51709     14.23488      8.95355
Ne     35.84740     20.40356      1.90537
Ne      3.02360     15.68233     13.78726
Ne      1.41145      2.16820     16.56079
Ne     35.23561     44.56900     19.46351
Ne     30.53038      9.77615     35.17254
Ne     41.22388      9.35419     15.16843
Ne     22.10286      3.85888     36.79517
Ne     40.00186     25.60802     20.91251
Ne     18.10510     42.04844     11.04325
Ne     17.19017     15.65210     -0.60905
Ne     27.43667     32.47797     38.65989
Ne     41.73318      8.84288     30.92919
Ne     41.73353     28.86718     34.27270
Ne     40.03483     35.40523     33.52542
Ne     37.22217     40.68623     18.54118
Ne     34.77953      1.23830     38.23550
Ne     36.77540     17.58569      6.19658
Ne     15.05286     18.10360     35.85065
Ne      1.11583     19.41217      9.57399
Ne     29.33727     40.34412     26.16662
Ne     45.74644     31.69203      3.70325
Ne     14.60909     10.88858     14.11554
Ne     29.29405     16.95512     15.59492
Ne     42.40176     22.02590     18.47688
Ne     28.83969     35.23776     40.21892
Ne      9.99598     17.23046     20.12791
Ne     32.38678      7.79639     39.09185
Ne      1.63207     16.88626     15.23985
Ne     39.93352     29.24987     42.22078
Ne     16.01302     43.20316     37.05725
Ne      8.09251     26.25137     17.29694
Ne     40.71614     21.17547      8.35272
Ne      9.35726      2.57104     17.24043
Ne     35.08960     15.10818     32.88950
Ne     23.71745     13.27778     20.65083
Ne     33.36764     35.58788     19.49577
Ne      3.47369     16.54089     44.66091
Ne     31.03372     16.20956     -0.01799
Ne      7.71699     26.64442      8.65764
Ne     19.96185     23.80294     31.29916
Ne     42.14247     16.93594     27.00634
Ne     27.79433     34.00442     43.31838
Ne     23.33042     36.87101     35.71729
Ne     24.82712     24.02038     32.46064
Ne     26.46357     25.72189     43.76238
Ne      3.18612      7.27979     19.09698
Ne     43.58851     26.98701     20.68484
Ne     -0.48133     15.50676     35.41402
Ne     34.31818     26.55403     42.66175
Ne     42.88813     15.90635     37.88462
Ne     29.03607     44.22959     44.05524
Ne     44.72524     29.76316     31.85168
Ne     37.50755     38.96654     45.06926
Ne     16.26575     14.22913      0.84339
Ne     28.58490     22.70718     36.75478
Ne     21.06168     44.80063     26.60860
Ne     24.74442      3.91003      0.85311
Ne     16.02186     33.10494     42.89858
Ne     -0.80686     43.70090     16.96811
Ne     13.36758     34.52517     16.63393
Ne     11.09346     29.21358     24.74755
Ne     13.09779     26.32161     -0.78290
Ne     18.82691     19.26603     39.43291
Ne     24.30722     37.36899     18.76042
Ne     15.21286      0.27608     19.57138
Ne     34.08595     26.65115     21.52912
Ne      1.99719      6.23340     30.17781
Ne     11.42781     44.39491     36.64882
Ne     35.63846     22.92331     44.62606
Ne     31.26175     29.96066     34.09446
Ne     22.00071      5.59091     38.62855
Ne     23.63558     35.00626     44.42524
Ne     31.22543      6.37635     32.85386
Ne     16.10944     32.83419     31.18898
Ne     36.08193      5.31327     43.09330
Ne     30.73591      1.55412     32.73261
Ne      8.78063     32.41320      6.05087
Ne     11.12301     18.13355     15.46142
Ne     28.61752     33.15414     22.11734
Ne     35.56110      7.91169      0.13520
Ne      3.95190     -2.89114      7.69260
Ne     36.79353      5.94598      4.12418
Ne     12.73283     14.36329     37.55465
Ne     16.02996     12.70822     35.98929
Ne      2.18734      9.50065     17.64044
Ne     26.99569      9.44275     16.41614
Ne      0.88830      3.12305     23.61692
Ne      8.89814      4.93428     17.98213
Ne     36.92718     39.69005      5.21203
Ne     36.36372     21.77785     37.16470
Ne     23.06302     40.14055     13.51653
Ne      0.85960     24.42165     24.70979
Ne     12.58881     20.59982     33.19249
Ne     27.79838     32.98798     30.87216
Ne     15.96887      5.46550     24.82740
Ne     31.63794     35.42734     21.21888
Ne     -0.09273     42.26567     37.05997
Ne     29.50495     34.96549     12.08406
Ne     38.75131     15.47123      2.53545
Ne     20.61947     19.67593     40.72236
Ne     20.90894     41.47562     29.78901
Ne     22.24276     35.09466     41.23222
Ne     30.48747     24.91011     30.25824
Ne     26.86618     17.99597     29.36796
Ne     13.61860     25.20050      5.58523
Ne     35.04389     32.42922     40.75056
Ne     28.08003     -0.39852     22.31180
Ne     11.74901     26.13470     36.95934
Ne     29.09032     27.52473     12.62704
Ne     16.69992      0.53217      7.47028
Ne     22.82974      6.41702      5.84097
Ne     21.90899     32.05184     33.04290
Ne     35.99666      4.20994      7.54078
Ne     29.19249     11.03656     18.63585
Ne     23.91525     20.53812     10.44305
Ne      3.33976     29.38224     19.33523
Ne      6.68318     31.39162     24.69916
Ne     42.87158     39.25113     20.01462
Ne     13.96616      4.07247      2.35950
Ne      4.27064     18.71389     23.00392
Ne     42.30081     35.77026     27.24467
Ne     25.61242     29.78719     36.93762
Ne     35.24557     40.60202     17.58953
Ne      5.68625     38.28088     22.60951
Ne     24.48351      3.84389     17.38889
Ne     34.73065     37.48424     12.10727
Ne     42.19028      6.04396     31.32123
Ne     14.21553     37.37917     42.88385
Ne     26.34332     37.23759      0.59745
Ne     18.35834     16.26887     34.18291
Ne     36.18332      9.85547     33.84342
Ne     21.14798     20.86808     24.11810
Ne      5.97876     35.70223      6.08815
Ne      4.96968      7.50668     27.61232
Ne     41.24166     19.74744     22.67507
Ne     32.40032     43.08102      4.31416
Ne     25.71619      3.05400      4.95445
Ne     35.51812     -0.34792     36.85449
Ne      1.49717      5.88111      8.25474
Ne     39.82117      2.79558     12.91751
Ne     34.19199     24.65084      9.62801
Ne     20.90459     25.30066     23.27087
Ne     41.11334     31.38872     30.88942
Ne      9.01817     14.22973     18.70950
Ne     14.03376      8.27646     16.93629
Ne      2.47353      5.65718     36.65721
Ne     34.85124      3.59863     22.57697
Ne     16.27788      6.66698     18.89298
Ne     39.83255     45.39409     27.82951
Ne     12.10016     31.52820     43.17927
Ne     14.98991     16.94306     26.42964
Ne      6.03540     13.77906     42.30808
Ne     -0.92081     37.64184     34.58244
Ne     42.08870     35.27591     14.41501
Ne      8.20864     33.50473     42.54751
Ne     13.76431     15.55318     22.58991
Ne      3.19059      6.54574     41.21493
Ne     39.48369     42.20578     19.09407
Ne     36.34791      2.49408      5.82647
Ne     14.89467     14.93005     44.38637
Ne     24.49636     19.55193     34.19517
Ne     15.42132     14.81951     27.15496
Ne     19.44890     27.47214     11.95867
Ne     18.71540     41.77547     39.58253
Ne     16.76500     31.30398     16.88383
Ne     29.60481     18.78349     21.47883
Ne      3.76320     36.56559     43.36787
Ne     26.67007     45.14600     24.13131
Ne     14.46949     33.50288     10.23358
Ne     25.10155     14.90231      3.16476
Ne      0.08380     16.60258      6.41565
Ne     11.62904     18.76514     27.61014
Ne     41.56080     24.03694     44.44364
Ne     40.41036     -0.16092      1.53922
Ne     31.59805     30.86477      5.78820
Ne      2.58617     18.42229     43.27162
Ne     37.74787     12.38782     20.99972
Ne     16.48938     34.80960      4.61263
Ne      4.97352     39.69503      0.04940
Ne     17.11345     15.72908     23.04019
Ne     43.60177      1.94180     45.26308
Ne     13.26531     28.56351     25.09965
Ne     36.98807     23.25514     27.01639
Ne      3.36126     33.17199      4.91994
Ne      2.52110     42.71601     24.29991
Ne     45.14319     45.66505     17.97213
Ne     42.62773     -1.47333     31.27041
Ne     15.20871     34.74880     32.30258
Ne     23.03455     24.84667     36.19880
Ne     35.30602     22.96603     15.56769
Ne     15.09979     15.74211     30.54871
Ne     28.87437     19.85530     13.92572
Ne      3.58810     43.26044     19.80848
Ne     43.09442      8.24872     16.32041
Ne      6.10663     44.48523     23.62376
Ne      4.49386      1.34918      0.70727
Ne     38.56339      0.97707      2.80075
Ne     41.94005      4.97378      8.14731
Ne     26.86589     15.32320     30.34074
Ne     36.69903     13.07946     27.70039
Ne     12.25198     37.83469     20.73909
Ne     23.75479     12.80945     12.96119
Ne     26.70277     23.79628     10.75819
Ne     40.60407     30.77170     15.23695
Ne     12.19940     19.55938      8.96952
Ne     10.08952     31.11678      3.61577
Ne     33.03459      3.02782      2.58981
Ne     16.43241     40.04471     33.68094
Ne     20.30547     42.19408      1.35891
Ne      5.27039      3.03184     34.23532
Ne     14.32400     -0.73301     31.72557
Ne     43.49913     23.70554     32.48059
Ne     35.06857      7.15428     23.26540
Ne      7.90998     22.01791      5.41108
Ne     28.86625      8.57940      7.94841
Ne     18.88214     25.42415     26.93474
Ne     36.90644     32.80772      7.11827
Ne     36.04991     13.91611     11.59200
Ne     16.95898     27.02065      0.07204
Ne     29.50522     24.62476     39.11786
Ne     22.85868     10.75617     43.34220
Ne     40.96039      3.95501     23.18884
Ne     31.29392     28.10364     14.06349
Ne      9.07317      0.39557     42.99276
Ne     34.36982     -0.07366     20.67258
Ne     28.67192      5.22339     24.02696
Ne     16.65328     34.13776     10.31211
Ne     34.63022     23.77514     42.49928
Ne      9.65416     37.19283     14.80002
Ne      3.85361     35.21886     39.59035
Ne     28.21452      6.15837     39.32910
Ne     11.33966     13.14097     36.09583
Ne     28.78215     31.23044     40.17436
Ne      2.89733      8.55261     42.30021
Ne      6.92056     23.10317     27.31417
Ne     41.49126      6.15350     19.84436
Ne     21.19137     18.39916     24.45506
Ne     31.71092      3.95715     35.84935
Ne     31.55948     15.70476     41.99363
Ne     30.11772     42.55573     19.85355
Ne     37.50742     44.53428      6.29880
Ne     17.56844      9.10494     31.68233
Ne     28.38369      8.64417     39.67480
Ne      5.29035     15.40586     14.37480
Ne     42.74613     40.36450     35.55886
Ne     22.96222     16.95449     24.84612
Ne     44.03928     -0.45563     41.82359
Ne     33.70249     26.67819     35.32858
Ne     18.44622     17.31438      0.39315
Ne     11.52921      0.75000     23.06365
Ne      0.74127     13.73812     43.35753
Ne     12.87499     35.22993     39.82253
Ne     28.10940     36.48376     30.01911
Ne     26.54078     42.46787      0.74186
Ne     16.16698     10.37347     33.51433
Ne     11.28052     13.89808     41.24845
Ne     15.47339     21.43121     21.09557
Ne     18.03724     18.50673     34.74910
Ne     10.54254      9.54733     41.53914
Ne      4.02737     35.17611     -1.28200
Ne     25.43800     42.32634     34.23253
Ne     15.23882     19.56942     38.21270
Ne     16.64991     34.68526     44.41936
Ne     37.89218     10.22552     25.24871
Ne     24.39068     20.28427     42.81726
Ne     18.36055     24.29787     37.14689
Ne     16.96465      6.93442      0.06436
Ne      7.74708     -0.00205     11.76359
Ne      8.34334     17.16418     34.86862
Ne     23.27095     17.61750     16.65491
Ne     39.78968     31.41897      9.74170
Ne     18.29578     32.89990     36.76061
Ne      6.61488     11.89668     37.60206
Ne     35.62900     33.02463     17.71244
Ne      3.59223      0.13447     22.99723
Ne     34.58753     32.78065     38.19163
Ne     33.81831     32.33227     19.24794
Ne     24.81280     37.57138      6.13839
Ne      6.04884     16.82959     19.28373
Ne     12.30931     46.51491     32.04010
Ne     10.74113      0.91338     16.00353
Ne     19.28146     10.56898     14.77535
Ne     10.17308     33.82675     14.05938
Ne      9.48621     35.26047     15.95037
Ne     15.17533     32.38901     17.86339
Ne     29.48174     32.41696      0.05412
Ne     31.58015     30.47527      7.99084
Ne     43.88118     21.97683      7.67467
Ne      0.57795     10.90188     16.85861
Ne     13.93712     26.63877     24.20846
Ne     30.63810     13.71351     43.03835
Ne     37.67199     28.83400     42.08572
Ne     18.11658     31.48746      5.37194
Ne     24.58922     41.00884     44.94686
Ne     31.34568     27.17570     27.03719
Ne      8.50683      9.62308     42.55087
Ne      4.16587      4.88649     35.60238
Ne     -0.67622      6.48565     36.70490
Ne     37.81868     35.42985     14.00852
Ne     20.25707     42.35975     21.57693
Ne     25.53441     18.34488     16.40197
Ne     10.07032     27.81868     33.60142
Ne     18.84763     21.17643      0.88580
Ne     28.09156     10.94438     39.70783
Ne     15.59000     11.58057     24.41631
Ne     38.52962      7.89754     25.23018
Ne     25.69474     40.29202     24.20790
Ne     28.67914      3.94445     29.69077
Ne     19.73720     17.74393     15.21756
Ne     13.51770     18.94446     43.82624
Ne     33.35629      2.03147     21.39600
Ne     41.76372      6.80306      6.71477
Ne     16.36131     30.25940      4.41644
Ne     41.72344     34.82050     44.04475
Ne     25.78047     43.01836     44.89150
Ne      8.56044     37.47084     22.51051
Ne     24.27811     11.15838     41.48099
Ne     29.71371     31.14405      4.60799
Ne      2.85486     31.80147      9.55937
Ne     19.50499     25.31387      7.62149
Ne     14.24489     39.51515     33.17651
Ne     20.74769     15.58482     11.50597
Ne     31.71004      0.57315     30.66641
Ne      4.57221     13.74211     32.13157
Ne     13.26491     36.57424     15.74379
Ne     15.84705     43.52468      0.38912
Ne     42.01368     16.07275     22.89195
Ne     11.62525     21.06018     25.66844
Ne     15.79930     37.23475     25.84309
Ne     16.00034     21.98225     10.87145
Ne     31.31870     40.03303     31.38461
Ne     29.37321      3.87226     36.04116
Ne     42.21390     34.88561     33.19201
Ne      0.39553     31.88180     13.75307
Ne      0.85172     10.41643      5.80175
Ne     26.14013      7.36484     18.54130
Ne      0.40381     21.23321     22.34035
Ne      8.83428     41.93235     34.25944
Ne      1.11010     22.02899     11.21753
Ne     14.96028      0.67322     37.28548
Ne     19.32863     15.43670     23.91852
Ne     30.25622     11.73814      9.45523
Ne     35.98273     42.71502     14.67398
Ne     19.14934      7.07492     40.97643
Ne      4.89251     31.09597     20.46991
Ne      1.98534     14.53750     29.86383
Ne      8.38978     23.87366     11.33048
Ne     44.80325     24.64600     17.59414
Ne      3.68722     33.58359     19.40987
Ne     23.16652     42.49889     32.25061
Ne     14.68952     36.51480     17.72574
Ne     42.24752     25.35868     17.10363
Ne     40.61871     23.65241     13.29877
Ne      8.35718     20.10285     -0.62636
Ne     32.62542      0.72336     11.55932
Ne     23.89357     37.54896     27.22895
Ne     37.31684     40.60200     22.31851
Ne     30.70139     35.13524      5.97827
Ne     18.02067      7.40864      2.22273
Ne     17.84562      3.65704     30.09742
Ne     31.21969     38.92830     22.72627
Ne      3.57368     14.46122     36.38018
Ne     43.23289     43.94392     41.40710
Ne     11.20691      1.52282     37.02316
Ne      6.56396     11.66963     39.88818
Ne     22.80053     32.62468     44.38255
Ne     18.10326     27.61352     34.78943
Ne     20.96992      6.94360     42.61923
Ne     14.72123      8.79784     25.23347
Ne      6.45052     23.45815     42.39951
Ne     37.98906     28.41300     35.73248
Ne      6.47800     38.54378     11.95022
Ne     23.68329     22.42676     12.45517
Ne     45.65377     39.11266      8.86089
Ne     10.01844     34.80862      9.55735
Ne      2.43610     26.92868      5.02920
Ne     24.88257     19.92084     31.66549
Ne     12.18148     43.24864     26.46559
Ne     30.08760     37.43182     13.27269
Ne     44.20976     14.50460     25.82128
Ne      4.96611     22.30735     32.38632
Ne     29.75870     26.66481     17.38816
Ne     39.57849      0.90938     15.93769
Ne     40.80967     21.22118     21.04614
Ne      8.59746     22.40477      7.48195
Ne     42.30249      4.71196      2.40517
Ne     13.87921     24.54507     23.54458
Ne      6.59345     16.33609     36.29083
Ne     38.53972     -1.25685     30.84043
Ne     13.16317      1.86289     21.69419
Ne      8.47950     20.73909     29.96670
Ne     21.54234     20.79694     20.39671
Ne      4.73275     15.58002      0.02807
Ne      8.05992     24.67992     32.37554
Ne      1.89027      0.97549     18.67813
Ne     -0.03709     18.28106      8.06785
Ne     35.90194     27.13421     31.74717
Ne     18.40403     26.22496     20.16874
Ne     11.58556     35.17469     15.20391
Ne     29.55214     37.80013     15.81752
Ne     25.58366     32.82384      0.65839
Ne     20.30787     43.27169     41.61817
Ne     22.19093     12.94047      6.00831
Ne     26.31694     23.97195     22.77986
Ne     42.81328     40.26135     25.74678
Ne     33.33033     11.68985      3.88455
Ne     11.38713      6.75794     23.78088
Ne     18.35969     31.30083     15.37647
Ne      4.25008     30.67539     28.57874
Ne     43.38006     14.30309     29.93289
Ne     12.53539     40.35874     43.73743
Ne     38.06404     41.38792     26.57732
Ne     30.98605     33.23231     21.44281
Ne     31.82868     27.16259     34.31644
Ne      7.25332      1.28449     21.05341
Ne     44.43700      2.82894      5.81341
Ne     41.09818     14.21421     23.89401
Ne     38.36916      5.94094     10.21857
Ne     22.03345      5.20529      9.52411
Ne     29.63833     42.61425     22.36844
Ne      8.54442      0.28191     40.43031
Ne     20.44024     37.27557     41.28433
Ne     11.58094     30.40843     11.22346
Ne     38.84787     10.91269     22.30934
Ne     42.23345     29.57571     32.05436
Ne     22.24918     29.56724      6.03748
Ne      0.87175     27.30345     17.29024
Ne      5.17044     27.41746     44.27361
Ne     33.32724      4.03748     32.86227
Ne     44.25459     17.11742     22.88394
Ne      5.29926     28.94295     34.32014
Ne     15.25334      8.53290     42.46085
Ne     28.45008      2.62980      9.02754
Ne     32.50181     10.00160     44.48254
Ne      1.04979     27.76982     19.67477
Ne     40.45521      3.58384     20.72310
Ne     39.00411     22.28084     16.75115
Ne      4.94169     21.38851     -1.18750
Ne     41.72995     31.93071      1.39082
Ne     36.11819     38.55420      6.95322
Ne      8.11202     28.11927      2.04006
Ne     10.66704     29.98305     15.49870
Ne     18.94551     19.50848     19.11372
Ne     24.84426     27.57335      9.11241
Ne     -0.81129     36.95601     17.47743
Ne     36.47886     30.72587     41.52801
Ne     11.70755     32.91020     23.92146
Ne      9.74827     27.15798     12.85889
Ne     13.91075     27.90080      1.13607
Ne     22.93449      9.30731     16.45832
Ne     34.86858      9.39687     13.26459
Ne      0.37992     24.94488     20.80080
Ne     38.87466      2.00585     -1.69181
Ne     -0.13293      5.13097     23.36967
Ne     26.35906     23.88472     40.49872
Ne      8.71758      8.62484     40.31756
Ne     31.78251      6.81950     41.39693
Ne      1.36151      0.14620     37.47164
Ne     20.04900     31.43681     13.83970
Ne      8.07040     22.61652     24.23378
Ne     17.23923     36.47874      9.04391
Ne     40.47479     14.01327     16.11765
Ne     17.38550     44.81687     44.05458
Ne      1.30107     23.50889     32.14336
Ne     16.16987     43.75108     21.32908
Ne     36.50043     37.51070      5.02169
Ne     -1.29951     38.34486     32.36140
Ne     15.50376     45.01901     27.15591
Ne      1.00564     19.18550      3.92930
Ne     17.92519     43.45500     41.24558
Ne     34.26046     33.10529      3.74485
Ne     23.81795     23.87488      6.32700
Ne      6.13571     29.14586     39.10324
Ne     27.89977     13.37817     10.73198
Ne     31.52281     33.48809     11.71675
Ne     18.54539     21.81203     42.43971
Ne      0.65303     17.01573     36.89830
Ne     40.91469     12.99994     12.60477
Ne     17.84096     46.34091     -0.49022
Ne     10.09035     30.03194     41.10675
Ne     11.84358     28.37709      9.90141
Ne     17.23016     35.74245     34.40575
Ne      3.53840     18.45113     15.41913
Ne     42.89457     41.38026     23.61590
Ne     26.28268      9.02058     36.19155
Ne      4.47512     25.40613     10.13591
Ne     30.23048     13.97031      9.46717
Ne      6.19544     32.71356     41.77745
Ne     20.59272     29.81750     25.28643
Ne     43.90734     18.38558     30.71136
Ne     38.59229     37.08902     28.85344
Ne      9.04930     40.29222     17.26775
Ne     32.98200     24.58864     36.32388
Ne     40.83521      0.17189     14.06098
Ne     25.64651     10.29937     40.05601
Ne     24.04900     26.22410     32.49003
Ne     34.92040     -1.17677     38.96511
Ne     28.10735     43.39137     38.99967
Ne     35.62847     31.24042      3.22518
Ne      3.54191     27.52261     17.86145
Ne     28.50768     12.95061      8.39799
Ne     37.22071     33.45666     20.21053
Ne      6.82530     39.71720     17.06286
Ne     31.50443     38.41549     33.17312
Ne     40.06109     42.12791     40.96724
Ne     14.07164     18.16799     39.63273
Ne     18.12637      5.16806     41.61950
Ne     35.77539      3.53397     14.36306
Ne      8.46384      1.10658     33.20212
Ne     17.89569     38.39015     31.13033
Ne     26.87234     -1.05108     10.58508
Ne     28.55921      7.58762     13.42619
Ne     40.29096     41.85210     27.11803
Ne     13.66427      4.58805     14.43316
Ne     15.00471     24.72809     41.38294
Ne     25.61033     17.32137      2.48856
Ne     26.56751      8.37693     43.23779
Ne     28.59673     34.34015     29.28859
Ne     34.88478      9.80347     20.59813
Ne      4.52864     38.82578      3.24263
Ne     15.56279     20.81279     27.60111
Ne     44.60139     12.05254     33.49731
Ne     15.08110     21.99552     16.23129
Ne     37.33259     34.63575      8.38868
Ne     16.66219     44.34487     33.28983
Ne     40.54174     29.06622      2.00419
Ne     29.72979     26.26412     22.28611
Ne     23.77616     20.44975     20.21353
Ne      2.60735     38.42581     11.13522
Ne     36.86871     24.93780     24.79656
Ne     14.37609     47.35644     -0.64812
Ne     13.53555     44.49734     40.23926
Ne      7.73727      6.38144      9.83840
Ne      4.51297     27.07820      4.30054
Ne     12.89391     26.27011     22.16326
Ne      8.90657      8.49574      2.82995
Ne     17.18777     17.46350     26.60691
Ne     25.18961     29.59155     17.87465
Ne     13.12784     39.41756     15.79334
Ne     13.65770     33.64816     27.70855
Ne      0.78488     30.61592      9.68341
Ne      6.12484     30.32389     41.09797
Ne      3.00302     19.80755     38.18105
Ne      4.11559      6.49636     14.82906
Ne     36.81120     38.39795     27.66237
Ne     18.69153     12.82392     32.27551
Ne     18.00721      1.18025      5.59819
Ne     18.77198     36.53371      1.34620
Ne     27.45104     21.44056     31.35954
Ne      8.11831     31.28638     41.76312
Ne     12.75069     41.67804     21.99769
Ne     45.93217     28.54402     44.76367
Ne      0.19531      8.73549     20.94209
Ne     35.70349     36.16218     36.22811
Ne     21.02371     17.70332      9.66349
Ne     34.80161     41.27735     13.23590
Ne     25.27799      0.27579     -0.68303
Ne      3.50363     15.57653      9.94274
Ne      9.94808     43.58625     13.53689
Ne     12.01895     42.45146     13.60030
Ne     29.69526     27.02034     30.90534
Ne     33.29849     20.54648     13.23019
Ne     40.07525     41.02583     33.31265
Ne     21.48320     37.83850     34.43098